ITEM: TIMESTEP
10000
ITEM: NUMBER OF ATOMS
1467
ITEM: BOX BOUNDS pp pp pp
-2.0000000000000000e+01 4.0000000000000000e+01
0.0000000000000000e+00 2.0000000000000000e+02
-2.0000000000000000e+01 2.0000000000000000e+01
ITEM: ATOMS id type x y z vx vy vz
6 1 4.91967 0.70049 -1.06845 2.35569 0.908071 -2.21445
23 1 4.82145 1.72716 -0.0460625 -5.78224 4.71336 -1.15601
24 1 5.61916 2.96031 -0.0507172 -0.118073 1.24303 -2.29728
25 1 7.0397 3.00324 -0.0634871 -1.35118 -2.71204 -6.21799
43 1 6.90483 5.57519 -0.177695 0.371414 1.5001 -0.0743405
13 1 13.4675 0.504136 -0.464175 -0.0194167 0.0133894 -0.0123281
14 1 14.293 1.62271 -0.126257 0.0959483 3.53337 0.334003
78 1 5.22997 10.5004 0.0284144 -2.494 -0.0716633 6.30002
79 1 6.60395 10.5756 -0.141182 -3.04006 -1.65769 0.204215
63 1 8.89396 6.99861 -0.122012 -1.50971 -5.04157 -3.39891
81 1 8.74913 9.46188 -0.192794 -2.10868 1.64661 -0.71075
82 1 9.35478 10.7314 -0.201338 -1.69807 -0.807333 2.06716
99 1 8.60382 11.902 -0.295428 2.76978 4.40386 1.91885
102 1 11.3328 12.0946 -0.376373 -2.19069 -3.77492 -0.828938
62 1 7.50077 6.88462 -0.196186 -3.38445 1.19319 -1.3347
80 1 7.34955 9.37603 -0.202725 1.06091 -1.07604 -1.5947
98 1 7.2039 11.8403 -0.217258 -5.16243 -1.34185 -0.589571
61 1 6.73653 8.08767 -0.150467 2.55256 2.25274 -0.419975
133 1 6.23984 18.0104 -0.588463 -1.93061 1.39546 2.44334
115 1 6.35522 15.5047 -0.486476 -4.73821 1.67415 -3.18366
97 1 6.48152 13.0486 -0.201167 0.57873 1.32014 1.96464
96 1 5.07581 12.963 -0.10358 -1.92477 -0.0561779 -1.16639
113 1 4.34034 14.1876 -0.161715 -3.99627 1.37308 -0.91123
114 1 4.94962 15.4651 -0.337652 0.40775 0.634574 -1.34664
130 1 2.828 16.618 -0.186751 -0.682542 0.545147 0.13203
131 1 4.23037 16.6857 -0.299263 1.0182 2.10806 -0.295768
132 1 4.84789 17.9578 -0.486157 1.67742 -0.626051 -2.59014
100 1 9.21975 13.1896 -0.375313 -4.63258 1.86493 1.51456
101 1 10.6034 13.2894 -0.421701 -3.17989 -0.744397 2.69237
119 1 10.4775 15.7055 -0.784888 3.59852 1.41435 -0.341263
120 1 11.2184 14.5285 -0.618817 -1.45678 -1.67943 0.192067
137 1 10.3602 18.1682 -0.910012 0.651658 -3.29434 -1.40178
138 1 11.0871 16.9614 -0.855775 0.553815 -0.492194 -0.330007
121 1 12.605 14.6065 -0.670251 -0.173606 1.15925 -2.91296
139 1 12.4663 17.0327 -0.952398 -0.834537 -0.885023 -3.01308
117 1 8.47453 14.3845 -0.468815 0.175515 3.47686 1.6282
118 1 9.09218 15.6452 -0.661311 -3.27182 4.73052 2.9036
135 1 8.35314 16.8541 -0.736646 -0.918552 3.45039 3.99708
136 1 8.96519 18.1201 -0.82063 0.788563 0.0985162 1.4469
116 1 7.08311 14.315 -0.366127 1.02634 1.74832 -0.684765
134 1 6.95996 16.7754 -0.568749 -1.42908 -3.05714 2.41309
140 1 13.1051 18.3073 -1.04966 0.351665 1.18205 -1.54963
122 1 13.2209 15.8479 -0.830923 1.8087 -0.86318 -0.163994
104 1 13.3501 13.4325 -0.513896 -0.628855 -6.10557 -1.2655
105 1 14.7177 13.5582 -0.215489 0.226269 1.68531 -2.03303
108 1 17.2903 13.8503 0.651303 -1.69134 1.4689 0.710983
123 1 14.611 15.9363 -0.688746 2.178 -1.16535 2.09173
124 1 15.324 14.8244 -0.301046 -2.35285 -1.626 3.61869
125 1 16.7278 14.9631 0.0112331 -5.78075 -1.24386 -0.810033
126 1 17.3177 16.158 -0.403865 -0.628304 -2.75985 1.85347
141 1 14.5151 18.3766 -1.03532 -2.10742 -2.1428 0.677513
142 1 15.2217 17.1542 -0.988928 -0.254634 -0.860538 2.43474
143 1 16.6445 17.2186 -1.04025 -1.06036 0.576998 1.18828
144 1 17.1386 18.3394 -1.68649 1.36425 -0.161527 -2.91697
169 1 6.06278 22.947 -0.508858 -1.33189 -2.22931 -0.540887
151 1 6.14279 20.4492 -0.580329 0.287892 -3.00678 0.962565
149 1 4.09251 19.1346 -0.372851 -2.19838 2.64444 -0.0557161
150 1 4.74774 20.395 -0.427363 -3.90042 0.02725 4.54481
167 1 4.02811 21.6245 -0.324264 -0.781103 -1.90591 1.07751
168 1 4.66901 22.8838 -0.351575 0.894309 -6.04848 0.929189
184 1 2.58882 24.0826 -0.321158 1.57108 -2.12199 -2.34901
185 1 3.98659 24.1253 -0.361187 2.51803 -3.9272 -0.328248
156 1 10.989 19.4175 -1.09263 -0.836645 -7.35844 -3.22903
192 1 10.7876 24.3312 -1.41035 -0.208037 1.16716 3.10641
157 1 12.3802 19.4831 -1.1668 2.51252 0.856547 -0.443437
175 1 12.2662 21.9076 -1.33908 -0.0330769 -2.74731 3.66767
193 1 12.2034 24.3641 -1.49297 -0.636274 2.05053 0.667612
153 1 8.20596 19.3152 -0.876616 -2.17968 -0.217888 3.32831
154 1 8.84589 20.5622 -0.987123 -0.638293 -3.54385 -1.20359
155 1 10.2468 20.6244 -1.10923 0.651095 0.123899 -1.40783
171 1 8.1383 21.7985 -0.874207 0.648989 0.437622 -3.30639
172 1 8.7579 23.0447 -0.987709 -1.02772 -0.166278 -1.62803
173 1 10.133 23.0876 -1.21785 -0.687098 -1.42461 -2.85684
174 1 10.8637 21.8813 -1.21846 0.832073 -0.876096 -2.20213
158 1 13.0247 20.7186 -1.30843 3.79157 3.31608 1.88923
176 1 12.9233 23.1635 -1.48229 4.7683 -1.57115 -3.86117
152 1 6.84901 19.2523 -0.715538 -0.847909 -0.217246 4.5878
189 1 8.07476 24.2784 -0.825404 -4.17355 -0.491383 -4.12001
170 1 6.76192 21.7189 -0.655847 3.25888 -0.574931 4.06354
188 1 6.70121 24.2136 -0.530573 -0.970246 -1.39109 0.482747
159 1 14.423 20.7862 -1.35628 -0.567301 2.76045 1.33972
160 1 15.1346 19.573 -1.40234 3.78319 -0.346301 -1.01953
177 1 14.3429 23.1994 -1.47534 1.60467 2.52674 -1.46513
178 1 15.0551 22.022 -1.58087 0.510409 3.29169 2.87089
179 1 16.4395 22.0558 -1.72986 -1.55899 1.48539 0.913192
180 1 17.03 23.3153 -1.6729 2.07861 2.11141 4.32939
196 1 14.9787 24.4754 -1.47608 -2.1139 1.74992 4.61071
162 1 17.038 20.8324 -2.00815 1.5712 2.23276 0.745493
161 1 16.5194 19.5811 -1.69717 0.703661 -0.487697 0.860377
197 1 16.3752 24.5301 -1.62223 0.894389 2.54966 -0.922944
187 1 5.99644 25.4419 -0.558492 -1.34601 -0.0201373 -0.780975
205 1 5.90667 27.9243 -0.771567 -5.95635 0.158329 -2.66565
223 1 5.82329 30.4288 -0.760863 3.27997 -0.384678 2.3468
201 1 1.78378 27.8296 -0.302824 0.664393 0.920336 2.28333
202 1 2.49048 26.5904 -0.342631 3.07804 1.69034 2.59798
218 1 0.332014 30.2806 -0.0175125 0.752017 -0.898308 1.34802
219 1 1.72198 30.2989 -0.183804 -3.79417 -0.772937 -4.56792
220 1 2.43228 29.0905 -0.333982 -1.49785 -1.59578 -2.52277
221 1 3.79642 29.1216 -0.608873 -2.32444 -1.33865 3.70092
222 1 4.43665 30.3765 -0.62486 -1.69363 1.29826 5.08157
186 1 4.60572 25.4199 -0.42946 -2.90659 -2.83365 -1.8525
203 1 3.88154 26.643 -0.449406 0.427713 3.25322 1.84305
204 1 4.51578 27.8932 -0.648522 2.10949 -0.843387 0.512491
210 1 10.7447 26.7972 -1.45532 3.52268 0.51943 -2.20549
211 1 12.1242 26.8435 -1.58455 -0.422423 5.03295 -0.800977
191 1 10.0806 25.5586 -1.38606 0.853473 0.136471 4.06604
209 1 10.034 28.0148 -1.2963 -3.00431 2.76978 -0.805737
227 1 9.94075 30.5036 -1.4284 -3.55663 5.89318 -4.57843
228 1 10.6457 29.2874 -1.44572 -5.3669 4.05791 2.73719
229 1 12.029 29.3112 -1.63802 -1.2882 -0.513814 -3.72693
194 1 12.8585 25.6338 -1.54168 -0.632868 1.17332 2.69943
212 1 12.7488 28.1163 -1.66482 -1.92253 -1.42725 0.31129
230 1 12.681 30.5514 -1.73065 -0.00312242 -1.03537 0.00192841
190 1 8.70644 25.5401 -1.05859 -1.11356 -1.0607 -3.05914
207 1 8.00609 26.7402 -0.946852 -2.71242 -3.2429 -2.82971
208 1 8.64258 27.9945 -1.07054 -3.72008 -6.42776 0.203458
225 1 7.93496 29.2223 -1.0227 -2.59701 1.40111 -5.30666
226 1 8.5681 30.4719 -1.19907 1.31258 0.31229 0.641372
206 1 6.61944 26.6985 -0.774098 -2.05352 -1.05659 0.186294
224 1 6.52684 29.1803 -0.855625 -0.506537 -3.02783 2.83848
195 1 14.2596 25.6755 -1.59463 -2.19371 0.270501 2.27197
213 1 14.1511 28.1412 -1.69283 -2.55246 -3.25793 4.26672
214 1 14.8787 26.9226 -1.65552 -0.245396 -2.83539 -3.97835
215 1 16.2923 26.9915 -1.65159 0.600405 -0.452392 -2.97957
216 1 16.8456 28.269 -1.60155 5.17956 -1.41745 -2.65114
231 1 14.0799 30.5907 -1.91869 0.0471463 -4.2206 -3.51333
232 1 14.7861 29.386 -1.90421 1.7046 -1.70222 2.66567
233 1 16.2008 29.4302 -2.03265 1.84546 0.302692 1.69676
198 1 16.9884 25.7761 -1.624 1.99194 0.521008 2.95627
234 1 16.7021 30.5853 -2.6431 2.25092 -0.700183 -2.64434
271 1 -0.401614 36.4845 0.220886 0.34262 1.6583 -3.13412
235 1 -0.300123 31.503 0.337463 -2.99385 -1.99435 -3.66162
241 1 5.79525 32.8862 -0.775369 -0.0594445 1.35873 -3.13765
259 1 5.72572 35.3401 -0.82341 2.17502 1.5786 2.45804
240 1 4.38394 32.8244 -0.619836 -3.48197 -1.65526 4.88448
258 1 4.33514 35.3198 -0.610713 0.455729 4.0667 -2.58291
254 1 0.235551 35.2475 -0.0104266 -1.44305 -2.34382 3.99811
274 1 2.26996 36.5478 -0.265459 -1.85485 1.41391 0.864755
236 1 0.284503 32.7713 0.0906396 -2.9221 2.12245 2.63397
237 1 1.67341 32.7781 -0.144467 -2.16991 2.31194 -2.58661
238 1 2.36933 31.5465 -0.241245 0.384764 -0.0487438 -1.28742
239 1 3.73592 31.5699 -0.559154 1.24722 -1.64217 1.09792
255 1 1.63218 35.2834 -0.126193 0.748322 -0.0849955 -2.67372
256 1 2.31835 34.0437 -0.196049 -3.971 1.63138 -1.93428
257 1 3.68593 34.06 -0.508865 0.359471 -1.52783 1.17448
275 1 3.63847 36.5675 -0.536222 -2.66303 3.98488 -1.74304
260 1 6.4336 34.1305 -0.961281 2.81036 2.28277 0.479044
242 1 6.48711 31.6669 -0.865064 0.360689 3.38604 -0.961118
278 1 6.38233 36.5994 -0.893266 -3.35795 -3.46988 -0.561046
263 1 9.8657 35.4655 -1.34672 2.09474 4.82843 -2.21301
245 1 9.91197 32.9836 -1.43169 -2.94503 -1.58757 0.263826
246 1 10.6061 31.7593 -1.51547 -2.73577 0.04736 -0.90042
264 1 10.5411 34.2333 -1.5141 -5.18107 -2.12319 -5.5083
282 1 10.5316 36.6902 -1.43928 -1.49944 0.718462 -1.46826
247 1 11.9842 31.7858 -1.73259 -1.29008 3.14577 0.279071
265 1 11.9409 34.2635 -1.73236 -5.54593 0.354444 -2.46846
283 1 11.9213 36.7079 -1.60416 0.949917 -1.53056 -1.78212
266 1 12.5851 35.4998 -1.84285 -0.4965 -0.0519947 -4.40741
248 1 12.6127 33.0271 -1.85608 0.600901 -1.17248 -0.77481
261 1 7.84029 34.1799 -1.10071 1.38955 -1.30104 -0.0974322
262 1 8.48551 35.4263 -1.12973 -2.75765 -0.837515 -4.10905
243 1 7.88994 31.6813 -1.08416 -1.66789 1.86617 0.669402
244 1 8.51469 32.9449 -1.23934 3.45521 2.0603 -2.79914
279 1 7.78668 36.6351 -1.00174 -4.78427 1.35504 -4.223
270 1 16.5936 35.5376 -2.69536 -1.88092 2.46299 3.96362
286 1 14.5934 36.7666 -2.26044 -2.39354 1.97311 -3.48684
287 1 15.9754 36.7637 -2.49912 -1.10351 4.31285 -1.62402
267 1 13.9466 35.5115 -2.15958 -0.738605 -2.12406 1.30572
268 1 14.5966 34.2723 -2.39909 0.551992 0.662874 3.73707
269 1 15.9624 34.2807 -2.75094 1.27771 -0.411063 -0.862876
249 1 13.9591 33.0361 -2.1666 -2.73092 4.43795 -1.37973
250 1 14.6876 31.8258 -2.25916 -1.75015 -1.11296 -2.07872
251 1 16.0522 31.8215 -2.61086 1.93664 -2.98654 -4.91315
252 1 16.539 33.0404 -3.08605 -2.70526 -2.67376 -4.4572
307 1 -0.411312 41.5346 -0.0755101 -0.0626612 -0.643416 -4.41627
277 1 5.71594 37.8332 -0.800831 -0.165746 -3.83226 -0.406481
295 1 5.69512 40.3138 -0.891806 -0.269959 -1.32042 0.502068
312 1 4.28013 42.7922 -0.736361 -1.13964 -0.5967 -0.645497
313 1 5.6695 42.8152 -0.987917 -0.0339807 2.46518 0.758747
276 1 4.319 37.8266 -0.616483 -1.51127 2.47689 -0.370181
294 1 4.30152 40.2923 -0.673922 -0.356328 1.97482 0.599519
273 1 1.57055 37.7993 -0.210299 -2.51306 0.346624 1.12236
290 1 0.202527 40.2983 -0.00417308 3.35275 -2.17652 0.338866
291 1 1.58779 40.319 -0.201077 3.45424 -0.0788753 -3.30552
292 1 2.24897 39.066 -0.340039 -0.768568 -0.208679 0.104953
310 1 2.24884 41.554 -0.425968 0.293962 6.463 2.44775
311 1 3.65542 41.5344 -0.58998 -1.41003 -1.45462 -1.61466
308 1 0.187085 42.7778 -0.115209 0.157572 0.144271 -1.16135
309 1 1.5752 42.7878 -0.376796 -2.80238 -0.179686 -0.41242
293 1 3.64868 39.0733 -0.529652 -1.65384 3.45638 -0.838794
296 1 6.3818 39.0647 -0.89714 -0.651411 5.54864 1.00208
314 1 6.36369 41.576 -0.9864 0.141182 2.40914 3.40828
319 1 11.8691 41.638 -1.70728 -2.258 3.57386 -0.359134
300 1 10.4982 39.1719 -1.39604 -1.61062 1.93994 -4.31386
301 1 11.8929 39.1932 -1.57165 0.0882058 3.00269 -0.938089
302 1 12.5703 40.4221 -1.73201 -4.75827 2.91271 2.08852
284 1 12.5732 37.958 -1.65417 -1.61301 0.611199 -1.00952
299 1 9.8044 40.4062 -1.30042 -2.86958 -0.469366 -1.22712
317 1 9.765 42.8707 -1.40631 -2.1308 -0.746558 -1.85419
318 1 10.479 41.6581 -1.47114 -1.11324 1.57005 4.71265
281 1 9.84062 37.9162 -1.37127 -3.71589 -1.16706 -0.294459
320 1 12.54 42.8756 -1.79654 -2.75849 3.58148 -1.73882
280 1 8.46368 37.8648 -1.14723 -1.48377 0.182473 -3.85433
316 1 8.38546 42.8502 -1.20201 0.81071 2.16905 2.23762
298 1 8.40879 40.3615 -1.15713 -2.32205 5.91799 -5.87001
315 1 7.73233 41.5995 -1.16218 -0.658164 6.53509 -0.198661
297 1 7.77417 39.0915 -1.04212 1.47787 0.172742 2.44432
288 1 16.6031 38.0189 -2.57301 0.782715 -0.141125 0.137796
285 1 13.9527 37.9771 -1.93619 -0.429045 -0.885322 -1.28891
304 1 14.6407 39.1953 -1.9156 -3.25019 -1.03908 -1.95899
305 1 16.0282 39.214 -2.13106 -6.53657 0.520166 -5.42947
303 1 13.9715 40.4264 -1.81837 -1.33247 -1.92795 6.4943
306 1 16.6474 40.4466 -2.00116 -0.151639 -4.64622 1.73033
321 1 13.9452 42.8884 -1.88169 1.28331 -1.11146 -1.61303
322 1 14.6375 41.6626 -1.84149 -4.05304 1.82847 0.654583
323 1 16.048 41.6937 -1.85081 2.25033 -2.10008 -2.28342
324 1 16.6086 42.9382 -1.59382 1.17751 -0.379306 1.50827
343 1 -0.353026 46.5626 0.273731 0.689927 -3.12492 -3.78008
329 1 3.59123 44.043 -0.691523 0.279989 1.71406 1.98549
330 1 4.23591 45.3114 -0.886735 0.658955 -0.790886 0.125599
347 1 3.58451 46.5497 -0.704099 0.165711 1.04413 0.951667
348 1 4.25587 47.7974 -0.840585 1.40276 0.629088 -2.22392
365 1 3.61875 49.0519 -0.720496 2.99675 2.27937 1.37776
331 1 5.62354 45.3039 -1.08441 -3.01745 0.145442 0.332152
349 1 5.63029 47.7864 -1.12373 -0.739492 -1.82977 -5.27119
328 1 2.21673 44.0495 -0.475183 -1.22892 0.596487 -0.205321
326 1 0.221595 45.2843 0.0879373 2.49154 -0.516378 1.03321
327 1 1.58341 45.2867 -0.222896 -1.16122 1.26874 -1.1843
346 1 2.23962 46.542 -0.388248 1.23218 -1.95004 -1.51673
332 1 6.31063 44.0811 -1.03174 0.573462 -0.55753 2.28958
350 1 6.28382 46.5266 -1.21258 -1.07832 3.59279 -2.46498
368 1 6.28117 49.0322 -1.34364 -2.0331 -2.52726 -2.23669
354 1 10.3952 46.5136 -1.83514 -2.3304 1.0818 0.367831
372 1 10.3816 48.9823 -2.08129 4.81065 2.7356 2.7474
355 1 11.7689 46.5321 -2.09933 3.33701 -0.659787 1.69418
373 1 11.7743 48.9784 -2.2688 -2.72321 1.27849 2.33043
334 1 8.37007 45.3033 -1.29117 0.605764 -1.12954 2.59563
335 1 9.74235 45.2899 -1.56728 -0.789227 1.31834 1.24739
336 1 10.4553 44.0963 -1.57201 -1.62759 -3.93685 -0.0135067
338 1 12.4898 45.3184 -2.1207 -1.5211 1.33804 -1.97135
337 1 11.8357 44.0977 -1.87087 2.73842 1.98568 -0.142899
356 1 12.4698 47.7546 -2.26988 -1.39294 4.68459 -2.85795
351 1 7.69017 46.5406 -1.29278 -1.48182 -1.3548 -6.41767
352 1 8.3489 47.7888 -1.50011 -0.125609 -0.850577 -2.89628
353 1 9.71648 47.7605 -1.80085 -0.4576 0.534068 3.47975
369 1 7.68262 49.0101 -1.5452 -1.35955 1.42278 0.255489
333 1 7.7066 44.0707 -1.13238 -3.52846 -2.508 0.264338
342 1 16.5938 45.4182 -2.11583 0.156651 1.10498 -0.719542
358 1 14.5376 46.5356 -2.44883 0.588904 0.552006 0.701329
359 1 15.9462 46.5497 -2.57537 -0.762002 -1.09864 -3.62829
360 1 16.4995 47.7084 -3.09172 -0.702407 -1.67719 -6.9425
339 1 13.876 45.3049 -2.25047 -1.98598 -1.09633 3.28211
340 1 14.5982 44.1307 -1.94813 2.2969 1.0427 -5.42172
341 1 15.9903 44.1629 -1.91418 -3.21009 2.72322 -1.89815
357 1 13.8518 47.7484 -2.53144 -1.28891 3.82466 0.00903255
376 1 14.5132 48.9747 -2.78388 -1.39257 0.204724 -3.35643
377 1 15.8964 48.9628 -3.12936 -0.427614 -1.07651 -5.72859
379 1 -0.323556 51.556 0.272148 -2.73194 -1.2489 -1.69508
403 1 5.70398 55.2184 -1.02058 -0.611774 -1.0089 -4.29067
383 1 3.65178 51.517 -0.706125 0.938301 4.80936 -4.50577
384 1 4.3052 52.7496 -0.890103 1.71689 4.07846 -1.94193
401 1 3.63209 53.9805 -0.822027 -2.27208 -4.93907 -3.78349
402 1 4.31001 55.2249 -0.901053 -1.89376 0.150103 -1.26746
366 1 4.30303 50.2844 -0.847884 -2.22469 -0.114671 1.28833
385 1 5.68148 52.7453 -1.11938 -2.17307 2.46138 -3.50025
367 1 5.66246 50.2738 -1.1377 -2.01706 1.5353 2.46119
419 1 3.67573 56.4694 -0.872211 1.07308 -0.65386 -4.39918
400 1 2.26167 53.9771 -0.6026 -1.38673 -3.38249 1.09612
418 1 2.27556 56.4519 -0.74068 0.771069 4.08807 1.5186
386 1 6.34429 51.5071 -1.28187 -2.19468 -1.16461 0.352624
422 1 6.39533 56.4621 -1.1257 -0.832298 -0.536768 2.00898
404 1 6.39302 53.9719 -1.14562 -2.16382 -0.545442 -5.69544
391 1 11.7937 51.4778 -2.37426 -2.90366 0.725835 -2.96249
390 1 10.4126 51.456 -2.11963 -1.1538 -0.0941289 -3.95342
409 1 11.8169 53.9635 -2.37797 0.0770385 1.58785 -1.31053
374 1 12.4454 50.2251 -2.42642 0.714745 0.0477183 1.88865
392 1 12.4564 52.7148 -2.52602 2.67751 4.14455 -1.47198
405 1 7.76602 53.941 -1.45985 0.264199 -1.00941 -0.745439
406 1 8.42713 55.1762 -1.53644 1.95102 1.48246 2.28038
407 1 9.80178 55.1917 -1.86334 -1.41713 0.022351 -2.89876
370 1 8.36543 50.2276 -1.71961 -0.272417 -2.77711 0.415455
371 1 9.74597 50.2314 -2.00644 0.765751 0.625053 -0.991968
387 1 7.70567 51.481 -1.55778 0.0612957 -1.403 -0.663197
388 1 8.41322 52.6995 -1.62641 -0.621547 -0.877014 -2.7326
389 1 9.76825 52.6858 -1.95962 -2.60162 3.34426 -2.6036
408 1 10.4407 53.9334 -2.0408 0.374342 3.45694 -2.47132
427 1 11.86 56.4293 -2.34325 0.802405 2.55647 -5.87838
410 1 12.4932 55.2091 -2.52859 1.2267 -1.67644 1.07406
426 1 10.4887 56.4492 -2.01254 -0.667442 -1.92985 -6.41326
423 1 7.78275 56.4531 -1.39946 -1.12407 0.201871 3.31737
378 1 16.4161 50.193 -3.53519 3.3512 0.0851811 -4.92462
395 1 15.8395 51.476 -3.399 5.99044 3.16468 -4.08862
396 1 16.4722 52.7163 -3.61684 -1.4357 0.397848 -0.981445
375 1 13.824 50.2205 -2.72845 3.60755 1.82216 0.0360652
393 1 13.8253 52.6992 -2.84078 0.340019 5.38283 -1.54474
394 1 14.461 51.4733 -3.05653 3.4035 3.57172 -1.43799
412 1 14.524 53.9169 -2.9306 -1.74118 1.34325 0.142308
413 1 15.9189 53.9225 -3.20459 0.116756 -0.213478 -0.5622
411 1 13.8647 55.1922 -2.86103 1.29657 -3.7756 0.279459
430 1 14.5193 56.4188 -3.06213 -0.0883538 -0.732581 -2.34242
431 1 15.9029 56.4093 -3.34415 2.25623 4.64402 0.688864
414 1 16.5613 55.1774 -3.18711 -0.0182176 6.53198 0.513065
421 1 5.73996 57.7076 -1.03132 -0.0814923 -0.666928 2.32225
438 1 4.31532 60.151 -0.938793 -0.893531 2.45338 1.13917
439 1 5.69578 60.1583 -1.15267 0.474362 1.30202 0.214271
457 1 5.73038 62.6265 -1.1352 1.98032 1.50261 -1.22335
437 1 3.62573 58.9294 -0.866463 -3.85704 2.49352 4.38193
420 1 4.33909 57.7152 -0.916593 0.564768 0.721868 -3.3731
455 1 3.66477 61.392 -0.821708 -4.19514 6.07443 1.05336
456 1 4.35352 62.6359 -0.91625 3.74092 3.64706 1.32938
454 1 2.29143 61.3723 -0.588357 -1.42015 2.61931 -0.192333
453 1 1.61357 62.6065 -0.432205 -4.74061 -2.90731 -2.81687
452 1 0.245844 62.5968 -0.144137 1.49087 -2.1663 -4.8432
440 1 6.40276 58.9324 -1.21728 1.90987 1.41922 -0.675006
443 1 9.76714 60.139 -2.13241 2.6504 0.400259 1.08778
444 1 10.4625 58.9112 -2.19327 -1.23592 0.0974597 -2.1946
462 1 10.4379 61.3769 -2.24788 -3.53188 0.822586 0.602391
445 1 11.8495 58.9104 -2.39558 0.361619 4.93072 -0.633653
463 1 11.8267 61.3836 -2.50306 1.73139 -2.34088 1.63475
446 1 12.5168 60.135 -2.55813 -1.58161 0.103918 0.0497708
424 1 8.45864 57.682 -1.60363 0.567026 -1.33296 -0.267078
425 1 9.80328 57.674 -1.93743 -0.607842 -0.288267 -3.56834
441 1 7.77021 58.9199 -1.56233 1.03926 1.12309 -4.7067
442 1 8.40638 60.1507 -1.81922 -1.40504 0.463838 -1.26556
459 1 7.72702 61.3793 -1.67647 3.05684 -1.05594 -3.7555
461 1 9.75169 62.6225 -2.21366 -0.198233 -3.7991 -1.35001
460 1 8.37696 62.603 -1.89922 0.51951 -2.6448 0.261975
428 1 12.5126 57.655 -2.5572 -0.220371 5.37307 -1.46638
464 1 12.5498 62.6137 -2.56164 0.757658 -0.460788 -0.764939
458 1 6.37675 61.3904 -1.32686 -1.76727 -2.20385 1.91696
432 1 16.47 57.6442 -3.67892 2.02422 2.02224 2.40847
468 1 16.6498 62.5984 -2.83789 -4.84296 -2.29171 2.19519
447 1 13.9033 60.1537 -2.77212 2.13608 2.892 -3.85283
466 1 14.6169 61.353 -2.80757 -2.41401 1.12219 1.52531
467 1 15.9818 61.3798 -3.06694 0.861676 -1.06661 0.570066
465 1 13.9464 62.5784 -2.6413 2.45912 0.99238 1.96488
448 1 14.5723 58.9311 -3.00571 2.97534 -0.907627 -3.45923
429 1 13.9003 57.6743 -2.86339 -1.40242 -2.04318 -1.59288
449 1 15.9515 58.9061 -3.37831 2.3251 2.38664 0.805259
450 1 16.5435 60.1696 -3.47857 -3.53331 -1.846 -2.12439
505 1 -0.316477 68.8349 0.106882 -1.93688 2.23883 -0.611024
469 1 -0.325873 63.8315 0.123389 1.40164 1.17836 -2.35387
474 1 4.36789 65.111 -0.858417 1.57159 -0.935381 -4.62154
491 1 3.66637 66.3409 -0.767661 -1.23414 -2.06427 -0.102334
492 1 4.33595 67.5771 -0.994097 -3.19333 3.17737 3.11516
473 1 3.66414 63.8685 -0.79418 -1.73558 -3.29651 -0.742769
475 1 5.7178 65.106 -1.18699 -1.14844 -2.63898 -1.31851
493 1 5.68315 67.5815 -1.32967 -0.654567 -0.85348 4.46122
494 1 6.35259 66.3425 -1.44261 -0.46811 0.422436 -0.0201126
488 1 0.27682 67.5895 -0.113528 -1.8217 -0.243214 -0.73661
470 1 0.216333 65.0726 -0.219782 -2.85617 -0.516521 0.239286
471 1 1.60293 65.0685 -0.492503 -3.27606 -1.00624 4.22609
489 1 1.65803 67.5734 -0.331972 -1.59089 0.649762 0.288793
490 1 2.28565 66.3214 -0.577724 -0.934034 -2.16442 -2.42663
509 1 3.67262 68.8205 -0.876735 -3.4147 2.31746 -1.40845
508 1 2.30446 68.824 -0.556799 0.146282 0.922101 -1.13579
472 1 2.27719 63.8537 -0.602461 -1.82224 -0.300552 0.607846
479 1 9.7764 65.0945 -2.11604 -2.04541 -0.549951 -2.00701
498 1 10.5134 66.3061 -2.15151 0.269886 2.60407 -3.07649
480 1 10.4482 63.8358 -2.29148 -1.12046 -2.86621 -4.86824
481 1 11.8564 63.8408 -2.42437 -1.50698 -3.27055 -5.42737
499 1 11.9141 66.2983 -2.22784 -0.806919 -0.915622 -0.0807357
517 1 11.8896 68.7668 -2.20075 1.38772 1.00696 -4.39028
482 1 12.5588 65.0485 -2.41532 -1.20976 0.14621 -2.47712
500 1 12.5775 67.5434 -2.23578 -0.49073 -2.048 -0.201964
476 1 6.39832 63.8611 -1.34153 0.289059 0.713896 2.40644
477 1 7.75385 63.8666 -1.70683 0.0335075 -3.52545 3.22275
478 1 8.3935 65.0968 -1.8561 0.393618 -0.066599 3.2938
495 1 7.71898 66.3284 -1.74204 -1.19095 -1.13888 3.45464
496 1 8.42538 67.5523 -1.8751 -0.522258 1.82696 -1.0514
516 1 10.4962 68.7822 -2.09418 -1.67334 2.19407 -0.372651
497 1 9.81925 67.5429 -2.06234 0.924501 -0.202549 1.46039
512 1 6.37845 68.8021 -1.53087 -4.92466 -2.06214 1.63992
513 1 7.75204 68.7999 -1.78149 -5.91089 0.916014 -1.93899
504 1 16.6667 67.5409 -2.40156 0.252063 -0.140165 1.1851
484 1 14.6486 63.8279 -2.62455 -0.0151844 3.04046 -5.19432
485 1 16.0573 63.8547 -2.79259 -0.742771 -1.25519 -3.92265
483 1 13.9753 65.0642 -2.47046 -0.507302 -1.18406 -3.02423
502 1 14.6351 66.3141 -2.43959 -2.47552 -2.11825 -1.28855
503 1 16.0386 66.3237 -2.59402 -2.39434 -0.366559 -2.40317
501 1 13.9633 67.5417 -2.36746 0.0198982 -1.7398 -0.93696
520 1 14.6507 68.7701 -2.38957 -0.64 1.76745 2.23635
521 1 16.0676 68.7978 -2.45346 0.671061 -3.08409 -8.03847
486 1 16.6273 65.1183 -2.96582 -2.47269 -1.70303 -6.8097
541 1 -0.436488 73.7582 -1.0145 -1.44427 1.12745 5.21466
546 1 4.38596 74.9633 -1.19097 0.715077 -3.02074 -1.05382
545 1 3.67982 73.7529 -1.10714 1.76654 -0.915265 -0.688962
547 1 5.77083 74.9489 -1.32368 0.164251 0.328752 4.91729
529 1 5.7393 72.5081 -1.29686 0.960455 -0.949399 -3.2875
511 1 5.71062 70.0447 -1.32836 -0.782365 2.79143 -0.301988
528 1 4.35096 72.5214 -1.11031 0.986167 1.43203 -1.49949
506 1 0.256733 70.0714 -0.193406 3.58872 -1.12095 -2.88984
542 1 0.190011 74.9824 -1.25193 -0.808234 3.29468 4.63243
543 1 1.59769 74.9686 -1.21318 -5.12297 -3.24624 -0.680282
507 1 1.64122 70.0571 -0.404998 -3.33185 0.0761148 0.201064
510 1 4.34118 70.0568 -1.02927 -0.949885 0.475779 -1.04286
524 1 0.183371 72.5372 -0.688311 1.4 0.823224 -0.63404
525 1 1.60856 72.531 -0.77188 1.23611 3.2046 -3.44841
526 1 2.30208 71.2811 -0.645365 2.21992 -3.58741 0.807304
527 1 3.68025 71.2874 -0.87994 1.0971 -1.56553 0.711493
544 1 2.28249 73.7516 -1.059 0.588806 1.43148 -0.178927
550 1 8.49542 74.9249 -1.62048 -1.01932 -2.87559 -1.06716
549 1 7.83652 73.6866 -1.52531 2.42523 1.80343 0.625162
551 1 9.89405 74.9313 -1.87275 -1.86241 1.55386 0.228736
532 1 8.47379 72.4698 -1.74564 -0.901712 0.819713 -3.99985
533 1 9.84894 72.478 -1.97189 -2.11249 -2.00393 -5.72425
552 1 10.5544 73.7103 -2.06481 -3.66291 -3.0927 -2.8454
553 1 11.92 73.7021 -2.42252 0.021583 -0.85764 -4.28678
548 1 6.43987 73.723 -1.34834 2.49789 3.59082 0.330897
515 1 9.84767 70.04 -1.99093 -0.27767 -1.50575 -1.90524
534 1 10.5687 71.2688 -2.06505 -1.06211 -0.0755926 -2.43849
535 1 11.9387 71.2597 -2.31475 0.665712 -0.657776 -4.49125
554 1 12.5876 74.9336 -2.58078 3.17493 -0.352531 -4.16253
536 1 12.5835 72.4774 -2.57316 -3.42744 0.221115 -2.33353
518 1 12.5798 70.0025 -2.28486 -3.77744 4.75422 -2.73549
514 1 8.45162 70.032 -1.82153 -1.5017 -1.21389 -2.8956
531 1 7.8024 71.257 -1.68793 0.630204 -0.534223 -2.30566
530 1 6.42162 71.2712 -1.41401 0.0288534 0.338234 -4.62382
540 1 16.5973 72.361 -3.38229 -1.50191 1.34655 -0.830465
556 1 14.6006 73.6653 -3.07435 1.3149 3.24369 -0.987385
555 1 13.9472 74.9008 -2.96914 -1.63492 -0.404162 -0.994331
537 1 13.9618 72.4538 -2.82158 -0.879895 -2.63522 -3.44652
538 1 14.6523 71.2292 -2.71006 -0.565726 -1.00359 2.22622
539 1 16.0387 71.2247 -2.82389 -3.43736 3.21673 -1.46803
557 1 15.974 73.6248 -3.44187 -4.16295 0.50479 -1.65982
519 1 13.9826 70.0127 -2.44861 -4.82009 -2.19489 -3.80858
522 1 16.6616 70.0492 -2.47317 2.5991 -2.24452 -1.4906
558 1 16.4619 74.8679 -3.88123 2.34249 2.12149 5.00673
577 1 -0.349091 78.7786 -1.30416 -1.05282 -1.96165 -0.64827
559 1 -0.378385 76.2516 -1.44861 -0.994591 3.59208 -5.37923
595 1 -0.317801 81.1421 -0.47699 4.21432 -1.27667 -1.03232
579 1 1.66363 79.974 -0.982868 -1.36122 1.85436 -1.39485
564 1 4.35706 77.4432 -1.15873 -1.50605 -0.180754 3.53438
582 1 4.41016 79.9115 -1.10203 -1.59662 2.08528 2.37817
599 1 3.74772 81.162 -1.07646 -1.01374 0.489908 -2.74479
562 1 2.25955 76.2181 -1.22048 -0.0300923 -1.87362 3.55523
563 1 3.68448 76.1909 -1.15874 0.220232 0.8812 -1.24498
580 1 2.29591 78.7091 -1.12201 -3.07327 0.613421 -2.87936
581 1 3.68938 78.6887 -1.10071 -0.588961 -3.91892 1.22087
598 1 2.35739 81.1792 -0.943451 -2.88427 3.29268 -1.91697
565 1 5.74981 77.4319 -1.24681 -1.77154 3.52611 4.36074
583 1 5.80036 79.9038 -1.21795 0.494087 0.776541 -1.78727
561 1 1.62366 77.473 -1.19688 0.751137 1.82427 0.647879
560 1 0.216334 77.4968 -1.29067 2.25132 -5.13407 6.54942
578 1 0.263592 79.9823 -0.935092 2.92452 -1.30832 -3.33857
566 1 6.44282 76.1855 -1.32255 0.766838 1.73179 0.934828
567 1 7.83249 76.1607 -1.4954 -2.89449 -2.58479 0.415028
571 1 11.929 76.1546 -2.32784 0.239388 0.854973 -1.38156
572 1 12.6141 77.3712 -2.46204 1.32822 1.04009 -0.283969
568 1 8.50224 77.4017 -1.62599 -0.705024 0.96749 -1.488
569 1 9.89933 77.3952 -1.82826 -2.61754 -0.526253 -2.52019
570 1 10.5743 76.1461 -1.9828 -1.16928 3.66788 1.70914
584 1 6.46029 78.6628 -1.31013 -0.471895 4.20008 -2.30917
585 1 7.8499 78.6449 -1.50069 -1.62009 1.30421 -1.91695
586 1 8.5403 79.8548 -1.52781 -2.60808 -2.81047 1.31853
587 1 9.96224 79.8529 -1.67642 -1.34455 -0.948091 3.87611
588 1 10.5912 78.6066 -1.91694 -0.685627 -1.20601 -2.12372
602 1 6.49828 81.1193 -1.29915 -0.727773 -2.37264 -2.69994
603 1 7.90405 81.119 -1.38986 -3.30919 -2.09378 -3.33982
606 1 10.6581 81.0764 -1.6929 1.60064 -2.42101 1.22154
589 1 11.9518 78.6185 -2.21571 -0.304643 1.93562 -4.64755
607 1 12.048 81.0728 -1.93582 -4.27705 -3.33437 -1.38753
590 1 12.6531 79.8382 -2.29679 -1.426 3.48865 -1.92816
576 1 16.615 77.3434 -3.45778 -0.261636 0.0322662 4.52687
591 1 13.9878 79.8296 -2.72345 -1.12255 -1.85246 -0.350755
610 1 14.7029 81.0489 -2.7198 1.3314 2.48241 -4.87653
611 1 16.0378 81.0699 -3.15535 2.10266 1.98051 -4.93291
592 1 14.6 78.6016 -3.04692 3.06489 -0.093277 1.66366
593 1 15.9613 78.6032 -3.43915 1.80291 -0.299683 2.82679
573 1 13.9525 77.3736 -2.89571 0.569154 5.75995 -1.66084
574 1 14.611 76.1373 -3.09351 0.320919 3.73625 -1.81163
575 1 15.9634 76.1273 -3.49854 2.66077 -0.681613 3.97699
594 1 16.548 79.8627 -3.66021 1.12926 -1.70828 -0.49438
613 1 -0.261997 83.6796 -0.441975 -4.66137 -2.41238 -3.88015
631 1 -0.276614 86.1955 -0.811752 -3.60257 -0.516343 -5.47946
618 1 4.48297 84.8646 -1.17842 -0.135529 0.239334 -1.34117
619 1 5.88545 84.8383 -1.27216 2.02728 -2.0731 -4.25584
637 1 5.9294 87.3326 -1.34324 -3.35074 0.546186 0.270927
600 1 4.44546 82.3731 -1.23119 -1.89023 0.601695 -1.17418
617 1 3.77501 83.6408 -1.14739 -2.07114 1.7697 -2.45565
635 1 3.8309 86.1163 -1.2207 4.07682 -3.9303 0.569846
636 1 4.53091 87.3434 -1.28306 1.93106 0.699075 -3.7448
597 1 1.71599 82.4155 -0.797278 -2.25541 3.11046 -0.715936
616 1 2.38305 83.6468 -0.978724 -4.01149 2.55128 3.0351
601 1 5.8393 82.3543 -1.29427 -2.39738 -0.283363 3.49476
614 1 0.314581 84.9147 -0.781445 1.17451 -1.17278 0.976843
615 1 1.7074 84.8873 -0.975082 1.80222 0.95932 0.685835
632 1 0.403549 87.441 -0.718685 -0.808234 -0.196908 1.17097
633 1 1.79575 87.391 -0.995155 -2.93143 -1.45652 -3.62664
634 1 2.41653 86.1118 -1.04941 -1.07646 -1.02694 -5.33107
596 1 0.321677 82.4109 -0.546205 -2.17189 4.95507 0.0933566
641 1 10.0975 87.2396 -1.32439 0.461187 -2.12041 1.12748
642 1 10.7367 85.9942 -1.32673 1.97025 1.27903 -3.39091
643 1 12.1559 85.9793 -1.46422 2.54718 0.401096 -2.37496
638 1 6.60783 86.073 -1.30482 -1.31198 1.89144 -4.71956
639 1 8.0098 86.0637 -1.29629 -0.713411 0.0270527 -1.97606
640 1 8.70079 87.2756 -1.27467 -2.48038 1.0563 0.520924
625 1 12.0988 83.5268 -1.72336 -0.749152 -1.43149 -1.86584
626 1 12.7874 84.7492 -1.67495 2.44349 1.19346 0.0250968
608 1 12.7577 82.2858 -1.93435 0.00701541 0.807338 -1.60709
604 1 8.61462 82.3438 -1.41569 2.25385 0.466082 -5.48152
605 1 10.0099 82.3192 -1.52972 -1.38653 -1.53344 -3.88352
620 1 6.50797 83.5793 -1.22815 1.60929 -1.71343 -3.53168
621 1 7.91672 83.567 -1.22657 0.337587 2.44587 -4.09405
622 1 8.63143 84.8034 -1.28076 -4.3199 0.00630055 -1.42783
623 1 10.0358 84.7771 -1.37533 -0.347278 3.03986 -1.93022
624 1 10.702 83.5412 -1.51872 -2.07839 1.79633 -2.61728
644 1 12.8529 87.2062 -1.53493 2.74528 -1.60226 1.297
612 1 16.6689 82.3314 -3.12349 1.97665 -0.201999 -0.358902
627 1 14.1743 84.7149 -1.94218 2.61193 0.0915193 -0.205245
645 1 14.2643 87.1753 -1.63987 -0.754986 0.826523 0.240428
646 1 14.893 85.9252 -1.80835 -1.93245 -0.12 -1.58452
647 1 16.3099 85.9269 -1.92267 -2.03795 -1.45162 -0.6765
648 1 16.9573 87.0922 -1.49219 0.658008 -2.59283 0.563724
609 1 14.1051 82.2846 -2.30177 0.537864 -1.27957 -0.392262
628 1 14.8281 83.4882 -2.22321 2.17607 0.231064 0.113344
629 1 16.208 83.4807 -2.5049 0.396809 -1.35693 -0.908918